ITEM: TIMESTEP
0
ITEM: NUMBER OF ATOMS
0
ITEM: BOX BOUNDS ff ff ff
0.0000000000000000e+00 5.4307000000000002e+01
0.0000000000000000e+00 5.4307000000000002e+01
0.0000000000000000e+00 5.4307000000000002e+01
ITEM: ATOMS id type xs ys zs vx vy vz 
ITEM: TIMESTEP
200
ITEM: NUMBER OF ATOMS
1
ITEM: BOX BOUNDS ff ff ff
0.0000000000000000e+00 5.4307000000000002e+01
0.0000000000000000e+00 5.4307000000000002e+01
0.0000000000000000e+00 5.4307000000000002e+01
ITEM: ATOMS id type xs ys zs vx vy vz 
2326 2 0.25801 0.429697 0.436862 0.0893876 216.388 -33.1203 
ITEM: TIMESTEP
400
ITEM: NUMBER OF ATOMS
2
ITEM: BOX BOUNDS ff ff ff
0.0000000000000000e+00 5.4307000000000002e+01
0.0000000000000000e+00 5.4307000000000002e+01
0.0000000000000000e+00 5.4307000000000002e+01
ITEM: ATOMS id type xs ys zs vx vy vz 
2326 2 0.258942 0.50946 0.42941 3.02436 217.656 -12.9007 
2327 2 0.659494 0.354783 0.436814 1.11999 215.662 -29.8468 
ITEM: TIMESTEP
600
ITEM: NUMBER OF ATOMS
3
ITEM: BOX BOUNDS ff ff ff
0.0000000000000000e+00 5.4307000000000002e+01
0.0000000000000000e+00 5.4307000000000002e+01
0.0000000000000000e+00 5.4307000000000002e+01
ITEM: ATOMS id type xs ys zs vx vy vz 
2326 2 0.261853 0.58804 0.431547 12.539 213.121 22.679 
2328 2 0.360428 0.4173 0.437031 0.118661 216.988 -32.9656 
2327 2 0.660166 0.434637 0.428258 2.53945 214.043 -15.6578 
ITEM: TIMESTEP
800
ITEM: NUMBER OF ATOMS
4
ITEM: BOX BOUNDS ff ff ff
0.0000000000000000e+00 5.4307000000000002e+01
0.0000000000000000e+00 5.4307000000000002e+01
0.0000000000000000e+00 5.4307000000000002e+01
ITEM: ATOMS id type xs ys zs vx vy vz 
2326 2 0.266381 0.666203 0.441546 13.6284 211.637 33.0086 
2328 2 0.361562 0.49693 0.42932 4.93894 217.532 -10.9214 
2329 2 0.359765 0.229719 0.436858 0.0647651 216.415 -33.1178 
2327 2 0.663955 0.512955 0.431399 11.266 213.284 17.678 
ITEM: TIMESTEP
1000
ITEM: NUMBER OF ATOMS
5
ITEM: BOX BOUNDS ff ff ff
0.0000000000000000e+00 5.4307000000000002e+01
0.0000000000000000e+00 5.4307000000000002e+01
0.0000000000000000e+00 5.4307000000000002e+01
ITEM: ATOMS id type xs ys zs vx vy vz 
2326 2 0.271362 0.744195 0.454394 13.4532 211.709 36.2553 
2328 2 0.364526 0.575871 0.430017 14.8214 213.388 20.0245 
2329 2 0.360801 0.309494 0.42914 3.2344 217.611 -13.7716 
2330 2 0.758198 0.460002 0.436898 1.17195 215.953 -29.0612 
2327 2 0.668889 0.590942 0.440837 14.9141 211.689 31.5513 
ITEM: TIMESTEP
1200
ITEM: NUMBER OF ATOMS
6
ITEM: BOX BOUNDS ff ff ff
0.0000000000000000e+00 5.4307000000000002e+01
0.0000000000000000e+00 5.4307000000000002e+01
0.0000000000000000e+00 5.4307000000000002e+01
ITEM: ATOMS id type xs ys zs vx vy vz 
2329 2 0.363881 0.38845 0.430136 13.1211 214.612 17.273 
2328 2 0.369646 0.654315 0.439043 14.7691 212.199 30.0392 
2326 2 0.276346 0.822167 0.468009 13.5098 211.723 37.4268 
2331 2 0.746323 0.27973 0.437241 -0.547445 217.133 -29.0634 
2330 2 0.758774 0.539789 0.428313 3.11686 212.485 -13.0688 
2327 2 0.674253 0.66886 0.453221 14.7586 211.524 35.2792 
ITEM: TIMESTEP
1400
ITEM: NUMBER OF ATOMS
7
ITEM: BOX BOUNDS ff ff ff
0.0000000000000000e+00 5.4307000000000002e+01
0.0000000000000000e+00 5.4307000000000002e+01
0.0000000000000000e+00 5.4307000000000002e+01
ITEM: ATOMS id type xs ys zs vx vy vz 
2329 2 0.368376 0.467435 0.43779 12.549 214.513 23.9062 
2328 2 0.375186 0.732543 0.451151 14.7894 212.419 34.7058 
2326 2 0.281326 0.90014 0.481864 13.5235 211.729 37.7461 
2332 2 0.753875 0.445672 0.43664 0.182623 216.249 -33.0314 
2331 2 0.745943 0.359076 0.429218 -3.66974 212.387 0.834586 
2330 2 0.7622 0.618141 0.431977 9.74296 213.218 17.5677 
2327 2 0.679661 0.746757 0.466488 14.6555 211.522 36.5371 
ITEM: TIMESTEP
1600
ITEM: NUMBER OF ATOMS
8
ITEM: BOX BOUNDS ff ff ff
0.0000000000000000e+00 5.4307000000000002e+01
0.0000000000000000e+00 5.4307000000000002e+01
0.0000000000000000e+00 5.4307000000000002e+01
ITEM: ATOMS id type xs ys zs vx vy vz 
2329 2 0.372797 0.546415 0.447211 11.6041 214.553 26.8605 
2328 2 0.380684 0.810765 0.464267 14.9098 212.387 36.2599 
2326 2 0.286304 0.978118 0.495778 13.5173 211.741 37.7922 
2333 2 0.345594 0.232851 0.436767 0.139228 216.737 -33.7796 
2332 2 0.754118 0.525741 0.426635 0.518404 217.779 -23.7522 
2331 2 0.74447 0.438117 0.432541 -3.94899 213.83 14.0721 
2330 2 0.76667 0.69605 0.441775 13.3327 211.617 32.3741 
2327 2 0.685062 0.824654 0.480026 14.6581 211.516 36.9247 
ITEM: TIMESTEP
1800
ITEM: NUMBER OF ATOMS
8
ITEM: BOX BOUNDS ff ff ff
0.0000000000000000e+00 5.4307000000000002e+01
0.0000000000000000e+00 5.4307000000000002e+01
0.0000000000000000e+00 5.4307000000000002e+01
ITEM: ATOMS id type xs ys zs vx vy vz 
2329 2 0.377026 0.625402 0.457335 11.313 214.416 28.1997 
2328 2 0.386174 0.888987 0.477723 14.9132 212.4 36.7171 
2333 2 0.345713 0.312934 0.426941 0.891346 218.157 -22.3797 
2332 2 0.754548 0.605971 0.42016 1.05889 217.824 -13.1119 
2331 2 0.74294 0.516969 0.439773 -3.90457 214.413 21.9231 
2330 2 0.771524 0.773924 0.454401 13.4065 211.405 35.88 
2327 2 0.690461 0.902551 0.493649 14.6596 211.518 37.0331 
2334 2 0.562779 0.329124 0.436823 0.0981924 216.492 -33.3313 
ITEM: TIMESTEP
2000
ITEM: NUMBER OF ATOMS
9
ITEM: BOX BOUNDS ff ff ff
0.0000000000000000e+00 5.4307000000000002e+01
0.0000000000000000e+00 5.4307000000000002e+01
0.0000000000000000e+00 5.4307000000000002e+01
ITEM: ATOMS id type xs ys zs vx vy vz 
2335 2 0.275651 0.338806 0.436687 -0.128045 216.487 -33.5981 
2329 2 0.381202 0.704366 0.467886 11.3246 214.397 29.0114 
2328 2 0.391664 0.967212 0.49127 14.9036 212.418 36.8114 
2333 2 0.346633 0.393164 0.421732 4.05832 218.352 -7.63686 
2332 2 0.756992 0.682527 0.426124 12.9098 203.894 44.7024 
2331 2 0.741547 0.595938 0.448154 -3.64044 214.378 23.3956 
2330 2 0.776435 0.851779 0.467851 13.322 211.403 36.9658 
2334 2 0.564018 0.408977 0.428382 4.69731 217.769 -16.9611 
2327 2 0.69586 0.980449 0.507292 14.6587 211.523 37.0496 
ITEM: TIMESTEP
2200
ITEM: NUMBER OF ATOMS
8
ITEM: BOX BOUNDS ff ff ff
0.0000000000000000e+00 5.4307000000000002e+01
0.0000000000000000e+00 5.4307000000000002e+01
0.0000000000000000e+00 5.4307000000000002e+01
ITEM: ATOMS id type xs ys zs vx vy vz 
2335 2 0.276213 0.418625 0.426026 0.650019 216.281 -24.1833 
2333 2 0.35181 0.470088 0.42798 25.0762 204.56 43.289 
2329 2 0.38537 0.783325 0.478648 11.3209 214.401 29.3704 
2336 2 0.765561 0.279904 0.436877 1.05565 217.006 -32.0977 
2334 2 0.568151 0.487844 0.427955 17.3326 214.046 13.7398 
2331 2 0.740255 0.674893 0.456925 -3.44751 214.385 24.0936 
2332 2 0.761624 0.757239 0.443916 13.2213 201.772 53.3319 
2330 2 0.781342 0.929636 0.481534 13.3129 211.422 37.2656 
ITEM: TIMESTEP
2400
ITEM: NUMBER OF ATOMS
8
ITEM: BOX BOUNDS ff ff ff
0.0000000000000000e+00 5.4307000000000002e+01
0.0000000000000000e+00 5.4307000000000002e+01
0.0000000000000000e+00 5.4307000000000002e+01
ITEM: ATOMS id type xs ys zs vx vy vz 
2335 2 0.278577 0.497978 0.420837 9.18872 214.853 -4.78096 
2333 2 0.361083 0.545301 0.444708 25.4983 203.907 47.7527 
2329 2 0.389538 0.862284 0.489497 11.3167 214.403 29.5195 
2337 2 0.532213 0.208687 0.43698 0.0026455 216.904 -32.5867 
2336 2 0.765535 0.359928 0.42619 -0.385955 217.141 -24.4913 
2334 2 0.574304 0.566333 0.435154 19.0368 212.472 26.3059 
2331 2 0.739009 0.753825 0.465914 -3.36302 214.291 24.7659 
2332 2 0.766539 0.831619 0.464113 13.307 201.973 55.5319 
ITEM: TIMESTEP
2600
ITEM: NUMBER OF ATOMS
9
ITEM: BOX BOUNDS ff ff ff
0.0000000000000000e+00 5.4307000000000002e+01
0.0000000000000000e+00 5.4307000000000002e+01
0.0000000000000000e+00 5.4307000000000002e+01
ITEM: ATOMS id type xs ys zs vx vy vz 
2335 2 0.280733 0.577196 0.423611 6.09481 214.953 14.9441 
2333 2 0.370526 0.620432 0.46263 25.6005 203.995 49.1966 
2329 2 0.393705 0.941244 0.500379 11.3154 214.406 29.5659 
2337 2 0.53125 0.288344 0.428063 -5.17324 216.952 -14.3657 
2338 2 0.544803 0.202307 0.437139 -0.324102 217.208 -32.2458 
2336 2 0.764824 0.439793 0.420178 0.880751 212.738 -3.0336 
2334 2 0.581039 0.644527 0.446226 17.8354 212.345 32.9338 
2331 2 0.737772 0.832745 0.475121 -3.35066 214.29 25.1764 
2332 2 0.771448 0.906 0.484658 13.3319 201.978 55.9108 
ITEM: TIMESTEP
2800
ITEM: NUMBER OF ATOMS
9
ITEM: BOX BOUNDS ff ff ff
0.0000000000000000e+00 5.4307000000000002e+01
0.0000000000000000e+00 5.4307000000000002e+01
0.0000000000000000e+00 5.4307000000000002e+01
ITEM: ATOMS id type xs ys zs vx vy vz 
2335 2 0.280454 0.655543 0.434132 -1.89125 212.763 36.3019 
2333 2 0.37996 0.695554 0.480843 25.6227 203.981 49.6108 
2337 2 0.529614 0.367873 0.426425 -9.20595 215.74 9.64737 
2338 2 0.544301 0.282002 0.427704 -2.99016 217.216 -16.2779 
2336 2 0.769105 0.518399 0.426114 11.0113 213.897 24.603 
2334 2 0.587647 0.722695 0.45885 17.8226 212.221 35.4657 
2331 2 0.736536 0.911664 0.484439 -3.35305 214.3 25.3777 
2339 2 0.736128 0.232004 0.436789 0.0315667 216.443 -33.288 
2332 2 0.776356 0.980386 0.505255 13.3282 201.986 55.9343 
ITEM: TIMESTEP
3000
ITEM: NUMBER OF ATOMS
9
ITEM: BOX BOUNDS ff ff ff
0.0000000000000000e+00 5.4307000000000002e+01
0.0000000000000000e+00 5.4307000000000002e+01
0.0000000000000000e+00 5.4307000000000002e+01
ITEM: ATOMS id type xs ys zs vx vy vz 
2335 2 0.279658 0.733762 0.448757 -2.70593 212.293 42.3778 
2333 2 0.389395 0.770676 0.499135 25.6201 203.981 49.7001 
2337 2 0.527195 0.447338 0.432462 -4.73101 216.019 22.0671 
2340 2 0.506535 0.39345 0.436493 0.264852 216 -34.3193 
2338 2 0.54295 0.361526 0.424158 -6.66768 214.284 5.196 
2336 2 0.773359 0.597354 0.436518 10.9933 214.214 30.9925 
2334 2 0.594213 0.800859 0.472068 17.8236 212.226 36.2136 
2331 2 0.735302 0.990588 0.49379 -3.34995 214.308 25.3979 
2339 2 0.73539 0.311903 0.427925 -1.45258 218.088 -18.295 
ITEM: TIMESTEP
3200
ITEM: NUMBER OF ATOMS
9
ITEM: BOX BOUNDS ff ff ff
0.0000000000000000e+00 5.4307000000000002e+01
0.0000000000000000e+00 5.4307000000000002e+01
0.0000000000000000e+00 5.4307000000000002e+01
ITEM: ATOMS id type xs ys zs vx vy vz 
2335 2 0.278716 0.811936 0.464699 -2.57721 212.249 43.9235 
2333 2 0.398831 0.845797 0.517442 25.6198 203.981 49.7189 
2341 2 0.674397 0.34231 0.436664 -0.16952 216.626 -33.8306 
2339 2 0.734052 0.391969 0.42337 -6.7637 217.076 -2.71272 
2340 2 0.50677 0.473208 0.426383 0.694849 216.431 -22.5525 
2338 2 0.540563 0.440768 0.428338 -5.27967 214.68 17.6182 
2337 2 0.525673 0.526859 0.441623 -3.27527 215.71 27.491 
2336 2 0.777076 0.676345 0.448568 9.76035 214.508 33.4987 
2334 2 0.600776 0.879021 0.485463 17.8205 212.239 36.4653 
ITEM: TIMESTEP
3400
ITEM: NUMBER OF ATOMS
10
ITEM: BOX BOUNDS ff ff ff
0.0000000000000000e+00 5.4307000000000002e+01
0.0000000000000000e+00 5.4307000000000002e+01
0.0000000000000000e+00 5.4307000000000002e+01
ITEM: ATOMS id type xs ys zs vx vy vz 
2342 2 0.282336 0.314069 0.436474 -0.216528 216.573 -34.9723 
2335 2 0.277768 0.890105 0.480966 -2.56959 212.257 44.3188 
2333 2 0.408266 0.920919 0.535753 25.6199 203.981 49.722 
2341 2 0.674717 0.42216 0.42591 -0.0778712 216.795 -24.231 
2339 2 0.733399 0.471987 0.426528 0.394753 218.239 17.0224 
2340 2 0.509156 0.551558 0.426269 8.93181 213.201 12.8863 
2338 2 0.53882 0.520057 0.436114 -4.62429 214.97 23.1297 
2337 2 0.524333 0.606267 0.452446 -3.62652 215.603 30.7721 
2336 2 0.780585 0.755296 0.461233 9.50485 214.352 35.0643 
2334 2 0.607339 0.957184 0.498907 17.8212 212.246 36.5211 
ITEM: TIMESTEP
3600
ITEM: NUMBER OF ATOMS
10
ITEM: BOX BOUNDS ff ff ff
0.0000000000000000e+00 5.4307000000000002e+01
0.0000000000000000e+00 5.4307000000000002e+01
0.0000000000000000e+00 5.4307000000000002e+01
ITEM: ATOMS id type xs ys zs vx vy vz 
2342 2 0.282512 0.393963 0.425071 1.30518 217.288 -27.2941 
2335 2 0.276819 0.968277 0.497303 -2.57767 212.269 44.3749 
2333 2 0.417701 0.99604 0.554065 25.6199 203.981 49.7222 
2343 2 0.581901 0.31599 0.43676 -1.36895 216.932 -32.1985 
2341 2 0.675066 0.502214 0.418587 -0.293725 216.385 -15.9883 
2339 2 0.734349 0.551165 0.436088 2.93424 212.737 40.4331 
2340 2 0.513073 0.6291 0.434619 13.4534 209.838 33.4274 
2338 2 0.536748 0.598967 0.446213 -6.05026 214.374 30.0537 
2337 2 0.522993 0.685664 0.464043 -3.68697 215.571 32.0335 
2336 2 0.784086 0.834231 0.474276 9.48923 214.336 35.6768 
ITEM: TIMESTEP
3800
ITEM: NUMBER OF ATOMS
9
ITEM: BOX BOUNDS ff ff ff
0.0000000000000000e+00 5.4307000000000002e+01
0.0000000000000000e+00 5.4307000000000002e+01
0.0000000000000000e+00 5.4307000000000002e+01
ITEM: ATOMS id type xs ys zs vx vy vz 
2342 2 0.282625 0.47392 0.417759 2.62075 218.014 -13.2069 
2344 2 0.670113 0.400544 0.436594 0.710905 216.973 -34.9281 
2343 2 0.581362 0.395988 0.425803 -2.20588 216.525 -26.0985 
2341 2 0.67625 0.580838 0.418126 10.9529 211.549 14.1474 
2339 2 0.735478 0.629759 0.452002 3.37865 213.589 44.245 
2340 2 0.51786 0.706295 0.447857 13.2419 209.287 38.5468 
2338 2 0.534479 0.67785 0.457674 -6.31199 214.135 32.1509 
2337 2 0.521645 0.765052 0.47595 -3.66693 215.566 32.5371 
2336 2 0.787582 0.913166 0.487454 9.4912 214.339 35.8543 
ITEM: TIMESTEP
4000
ITEM: NUMBER OF ATOMS
10
ITEM: BOX BOUNDS ff ff ff
0.0000000000000000e+00 5.4307000000000002e+01
0.0000000000000000e+00 5.4307000000000002e+01
0.0000000000000000e+00 5.4307000000000002e+01
ITEM: ATOMS id type xs ys zs vx vy vz 
2342 2 0.280331 0.553275 0.417806 -11.0988 216.305 12.352 
2344 2 0.670575 0.480488 0.424611 2.2051 217.563 -30.2146 
2345 2 0.658818 0.473093 0.436424 0.873536 216.906 -35.4468 
2343 2 0.579284 0.475804 0.419311 -7.29166 215.551 -11.1312 
2341 2 0.675788 0.657751 0.429465 -1.42913 208.341 41.4764 
2339 2 0.736739 0.70842 0.468372 3.46365 213.558 44.6362 
2340 2 0.522756 0.783393 0.462477 13.2292 209.341 40.4187 
2338 2 0.532164 0.756708 0.469668 -6.29664 214.106 32.9156 
2337 2 0.520295 0.84444 0.487972 -3.6624 215.565 32.7193 
2336 2 0.791077 0.992104 0.500664 9.48936 214.347 35.8748 
ITEM: TIMESTEP
4200
ITEM: NUMBER OF ATOMS
10
ITEM: BOX BOUNDS ff ff ff
0.0000000000000000e+00 5.4307000000000002e+01
0.0000000000000000e+00 5.4307000000000002e+01
0.0000000000000000e+00 5.4307000000000002e+01
ITEM: ATOMS id type xs ys zs vx vy vz 
2346 2 0.365439 0.416597 0.436494 -0.268923 216.376 -34.7165 
2342 2 0.275386 0.632465 0.424243 -17.083 212.572 25.6362 
2343 2 0.570473 0.552745 0.423718 -24.3274 205.515 30.7389 
2344 2 0.671322 0.560366 0.414986 4.00333 217.238 -19.5845 
2345 2 0.65933 0.552874 0.424096 3.17498 216.21 -28.6861 
2341 2 0.675074 0.734206 0.446689 -3.23086 207.272 50.9857 
2338 2 0.529845 0.83556 0.481856 -6.29403 214.109 33.2148 
2339 2 0.738016 0.787063 0.48487 3.46637 213.542 44.9094 
2340 2 0.527641 0.860486 0.477483 13.2629 209.334 40.955 
2337 2 0.518946 0.923828 0.500034 -3.66249 215.568 32.7751 
ITEM: TIMESTEP
4400
ITEM: NUMBER OF ATOMS
11
ITEM: BOX BOUNDS ff ff ff
0.0000000000000000e+00 5.4307000000000002e+01
0.0000000000000000e+00 5.4307000000000002e+01
0.0000000000000000e+00 5.4307000000000002e+01
ITEM: ATOMS id type xs ys zs vx vy vz 
2347 2 0.405314 0.389063 0.436468 0.21527 215.826 -34.0557 
2346 2 0.366373 0.496321 0.426115 2.65592 216.601 -22.3772 
2342 2 0.271149 0.710455 0.437558 -11.2814 211.7 42.3984 
2343 2 0.562472 0.628759 0.438581 -22.5201 206.129 44.8561 
2344 2 0.672943 0.639753 0.409966 9.74036 209.791 1.18459 
2345 2 0.661039 0.632418 0.415028 8.00733 209.315 -15.2184 
2341 2 0.673951 0.81054 0.465865 -3.04608 207.268 52.6973 
2338 2 0.527526 0.914412 0.494111 -6.29578 214.113 33.3142 
2340 2 0.532525 0.937581 0.492594 13.2672 209.346 41.0673 
2337 2 0.517597 1.00322 0.512106 -3.66202 215.57 32.7797 
2339 2 0.739293 0.865705 0.501423 3.46773 213.541 44.9715 
ITEM: TIMESTEP
4600
ITEM: NUMBER OF ATOMS
10
ITEM: BOX BOUNDS ff ff ff
0.0000000000000000e+00 5.4307000000000002e+01
0.0000000000000000e+00 5.4307000000000002e+01
0.0000000000000000e+00 5.4307000000000002e+01
ITEM: ATOMS id type xs ys zs vx vy vz 
2347 2 0.405785 0.468935 0.426946 1.27634 217.033 -21.3932 
2346 2 0.367659 0.575946 0.4213 7.95757 216.713 -3.56769 
2342 2 0.267075 0.788345 0.454208 -10.7417 211.506 47.0768 
2348 2 0.731832 0.245093 0.436693 -0.488568 216.075 -32.9208 
2343 2 0.554343 0.704564 0.456275 -21.9585 205.92 49.5585 
2344 2 0.67759 0.714801 0.41665 -13.4775 192.518 42.7767 
2345 2 0.670714 0.706505 0.419723 27.0594 198.527 23.4814 
2341 2 0.672828 0.886872 0.485347 -3.0429 207.27 53.0142 
2339 2 0.74057 0.944348 0.517988 3.46801 213.543 44.9824 
2338 2 0.525208 0.993266 0.506383 -6.29446 214.117 33.3238 
ITEM: TIMESTEP
4800
ITEM: NUMBER OF ATOMS
9
ITEM: BOX BOUNDS ff ff ff
0.0000000000000000e+00 5.4307000000000002e+01
0.0000000000000000e+00 5.4307000000000002e+01
0.0000000000000000e+00 5.4307000000000002e+01
ITEM: ATOMS id type xs ys zs vx vy vz 
2347 2 0.407204 0.547726 0.426574 4.98076 214.722 12.0368 
2346 2 0.368802 0.655098 0.423619 5.22871 214.749 17.0967 
2342 2 0.263099 0.866229 0.471747 -10.7839 211.469 48.0162 
2348 2 0.731173 0.324964 0.427191 -0.108441 217.765 -20.599 
2343 2 0.546251 0.780381 0.47469 -21.9759 205.86 50.321 
2344 2 0.673031 0.785297 0.436349 -9.76181 190.782 59.97 
2345 2 0.681091 0.778781 0.431195 30.4869 194.681 37.4402 
2349 2 0.691235 0.368961 0.436818 -0.134501 217.307 -34.4429 
2341 2 0.671707 0.963207 0.504881 -3.04666 207.277 53.048 
ITEM: TIMESTEP
5000
ITEM: NUMBER OF ATOMS
9
ITEM: BOX BOUNDS ff ff ff
0.0000000000000000e+00 5.4307000000000002e+01
0.0000000000000000e+00 5.4307000000000002e+01
0.0000000000000000e+00 5.4307000000000002e+01
ITEM: ATOMS id type xs ys zs vx vy vz 
2347 2 0.408943 0.626096 0.433612 5.439 212.016 28.7963 
2346 2 0.370197 0.733996 0.431962 1.81627 213 29.1773 
2342 2 0.259126 0.944114 0.489469 -10.7904 211.494 48.1636 
2348 2 0.730159 0.404731 0.422103 -1.91232 213.536 -1.87023 
2350 2 0.740853 0.246874 0.436566 -0.423042 216.287 -33.8509 
2343 2 0.538158 0.856195 0.493253 -21.9748 205.861 50.4577 
2344 2 0.669203 0.855469 0.459219 -10.4148 190.431 63.3482 
2345 2 0.69147 0.850141 0.447374 27.5016 193.918 47.2576 
2349 2 0.690569 0.448893 0.425649 -4.08703 218.009 -24.9943 
ITEM: TIMESTEP
5200
ITEM: NUMBER OF ATOMS
9
ITEM: BOX BOUNDS ff ff ff
0.0000000000000000e+00 5.4307000000000002e+01
0.0000000000000000e+00 5.4307000000000002e+01
0.0000000000000000e+00 5.4307000000000002e+01
ITEM: ATOMS id type xs ys zs vx vy vz 
2351 2 0.474249 0.395286 0.436631 0.67367 217.041 -34.715 
2347 2 0.410782 0.704161 0.44511 4.94829 211.534 33.9345 
2346 2 0.371747 0.812318 0.444997 4.24459 212.697 38.7986 
2350 2 0.740367 0.326879 0.426014 -1.28094 217.73 -25.6818 
2348 2 0.728839 0.481784 0.431479 -7.55302 208.811 41.3357 
2349 2 0.687855 0.528755 0.418645 -14.9524 216.215 -6.14995 
2344 2 0.665376 0.92561 0.482666 -10.3991 190.475 63.7928 
2345 2 0.701604 0.921511 0.465116 27.5011 193.776 48.9092 
2343 2 0.530065 0.932009 0.511841 -21.9745 205.864 50.4821 
ITEM: TIMESTEP
5400
ITEM: NUMBER OF ATOMS
9
ITEM: BOX BOUNDS ff ff ff
0.0000000000000000e+00 5.4307000000000002e+01
0.0000000000000000e+00 5.4307000000000002e+01
0.0000000000000000e+00 5.4307000000000002e+01
ITEM: ATOMS id type xs ys zs vx vy vz 
2352 2 0.357115 0.397678 0.436653 0.646622 216.993 -34.7434 
2351 2 0.474655 0.474823 0.425699 2.51495 213.635 -17.3192 
2347 2 0.412606 0.782107 0.458133 4.88007 211.623 36.1899 
2346 2 0.373348 0.890631 0.459836 4.45755 212.658 41.2604 
2350 2 0.73854 0.40677 0.419408 -6.98961 217.177 -9.74654 
2348 2 0.726129 0.558444 0.447843 -7.57451 207.944 47.0133 
2349 2 0.682095 0.60878 0.418122 -19.1116 215.907 3.55833 
2345 2 0.711733 0.992889 0.483161 27.5047 193.829 49.0178 
2344 2 0.661545 0.995759 0.506163 -10.4007 190.481 63.8042 
ITEM: TIMESTEP
5600
ITEM: NUMBER OF ATOMS
8
ITEM: BOX BOUNDS ff ff ff
0.0000000000000000e+00 5.4307000000000002e+01
0.0000000000000000e+00 5.4307000000000002e+01
0.0000000000000000e+00 5.4307000000000002e+01
ITEM: ATOMS id type xs ys zs vx vy vz 
2352 2 0.357791 0.477586 0.425459 3.74989 218.047 -25.3972 
2353 2 0.25006 0.217117 0.437055 0.0118639 217.053 -33.0795 
2351 2 0.471694 0.553487 0.426994 -8.02995 213.621 15.4886 
2347 2 0.414418 0.860038 0.471657 4.91629 211.619 37.0311 
2346 2 0.374964 0.968966 0.475128 4.36613 212.736 41.6086 
2350 2 0.736321 0.486773 0.419628 -6.09384 217.948 8.19214 
2348 2 0.72332 0.635017 0.465422 -7.65639 207.866 48.2836 
2349 2 0.67342 0.688722 0.421444 -24.5213 217.705 10.9569 
ITEM: TIMESTEP
5800
ITEM: NUMBER OF ATOMS
8
ITEM: BOX BOUNDS ff ff ff
0.0000000000000000e+00 5.4307000000000002e+01
0.0000000000000000e+00 5.4307000000000002e+01
0.0000000000000000e+00 5.4307000000000002e+01
ITEM: ATOMS id type xs ys zs vx vy vz 
2352 2 0.36062 0.557325 0.418429 17.2044 216.238 -6.01787 
2353 2 0.25012 0.296658 0.430112 0.600946 217.754 -7.1934 
2351 2 0.468956 0.632301 0.434858 -7.9862 213.871 25.5269 
2347 2 0.416229 0.937973 0.485343 4.92549 211.63 37.2368 
2354 2 0.634505 0.273663 0.436843 -1.06995 216.859 -31.7716 
2350 2 0.734138 0.565646 0.427224 -8.48671 212.38 38.3165 
2348 2 0.720491 0.711577 0.483261 -7.6921 207.892 48.5061 
2349 2 0.664633 0.768719 0.426398 -22.7172 217.418 16.2277 
ITEM: TIMESTEP
6000
ITEM: NUMBER OF ATOMS
8
ITEM: BOX BOUNDS ff ff ff
0.0000000000000000e+00 5.4307000000000002e+01
0.0000000000000000e+00 5.4307000000000002e+01
0.0000000000000000e+00 5.4307000000000002e+01
ITEM: ATOMS id type xs ys zs vx vy vz 
2355 2 0.367956 0.212535 0.436856 -0.0873576 217.003 -33.4888 
2352 2 0.367754 0.637048 0.417857 22.8443 214.521 6.19421 
2353 2 0.250374 0.375493 0.432095 0.6808 212.571 25.9046 
2351 2 0.466206 0.711083 0.445086 -7.77545 213.773 29.4966 
2354 2 0.633904 0.353455 0.426415 -5.92076 214.406 -19.0436 
2350 2 0.73122 0.643778 0.442707 -7.50749 211.752 45.5913 
2348 2 0.717657 0.788138 0.501133 -7.69678 207.89 48.5434 
2349 2 0.656351 0.848392 0.43332 -21.1745 213.333 26.8447 
ITEM: TIMESTEP
6200
ITEM: NUMBER OF ATOMS
9
ITEM: BOX BOUNDS ff ff ff
0.0000000000000000e+00 5.4307000000000002e+01
0.0000000000000000e+00 5.4307000000000002e+01
0.0000000000000000e+00 5.4307000000000002e+01
ITEM: ATOMS id type xs ys zs vx vy vz 
2355 2 0.368037 0.292069 0.427727 -0.0967856 216.173 -10.4049 
2353 2 0.25073 0.453795 0.442651 1.02024 211.68 32.6611 
2352 2 0.37652 0.716085 0.422862 16.6462 213.209 23.9013 
2351 2 0.463399 0.789753 0.45653 -7.46557 213.62 32.2734 
2356 2 0.7254 0.37312 0.436332 0.00500428 216.837 -36.3204 
2354 2 0.63108 0.432573 0.424341 -4.13652 212.142 11.3065 
2350 2 0.728429 0.721811 0.459911 -7.55038 211.87 47.3268 
2349 2 0.648889 0.927317 0.445781 -20.1247 214.827 35.615 
2348 2 0.714822 0.864699 0.519013 -7.69759 207.89 48.5565 
ITEM: TIMESTEP
6400
ITEM: NUMBER OF ATOMS
9
ITEM: BOX BOUNDS ff ff ff
0.0000000000000000e+00 5.4307000000000002e+01
0.0000000000000000e+00 5.4307000000000002e+01
0.0000000000000000e+00 5.4307000000000002e+01
ITEM: ATOMS id type xs ys zs vx vy vz 
2355 2 0.367989 0.372034 0.426828 2.2662 217.753 3.56542 
2353 2 0.251134 0.531866 0.455541 1.25694 211.991 36.096 
2352 2 0.38308 0.794584 0.434485 17.7931 211.798 38.222 
2351 2 0.460632 0.868412 0.468605 -7.49626 213.574 33.2246 
2357 2 0.540744 0.371571 0.436924 0.387678 217.095 -32.1247 
2356 2 0.725506 0.452966 0.424181 0.496774 217.429 -28.0121 
2354 2 0.628544 0.510895 0.433982 -5.96865 212.029 33.8144 
2350 2 0.725648 0.799841 0.477435 -7.55875 211.879 47.7343 
2348 2 0.711987 0.94126 0.536896 -7.69757 207.89 48.5585 
ITEM: TIMESTEP
6600
ITEM: NUMBER OF ATOMS
9
ITEM: BOX BOUNDS ff ff ff
0.0000000000000000e+00 5.4307000000000002e+01
0.0000000000000000e+00 5.4307000000000002e+01
0.0000000000000000e+00 5.4307000000000002e+01
ITEM: ATOMS id type xs ys zs vx vy vz 
2355 2 0.368077 0.452003 0.429997 0.354232 217.311 13.774 
2353 2 0.251633 0.609951 0.469027 1.39241 212.047 36.8663 
2352 2 0.389123 0.872678 0.450486 16.3325 212.181 45.4587 
2351 2 0.45787 0.947076 0.480894 -7.50467 213.616 33.4312 
2357 2 0.541296 0.451211 0.427102 2.81031 215.388 -13.0898 
2358 2 0.716402 0.418328 0.4363 -0.0222443 216.503 -35.5724 
2356 2 0.726391 0.532835 0.416569 6.74762 216.105 -7.14737 
2354 2 0.62649 0.588996 0.448183 -5.64545 212.193 40.7854 
2350 2 0.722864 0.877871 0.49504 -7.55988 211.879 47.8452 
ITEM: TIMESTEP
6800
ITEM: NUMBER OF ATOMS
9
ITEM: BOX BOUNDS ff ff ff
0.0000000000000000e+00 5.4307000000000002e+01
0.0000000000000000e+00 5.4307000000000002e+01
0.0000000000000000e+00 5.4307000000000002e+01
ITEM: ATOMS id type xs ys zs vx vy vz 
2355 2 0.36827 0.532096 0.435856 0.105209 217.305 18.1129 
2353 2 0.252147 0.688036 0.48266 1.39723 212.025 37.1339 
2352 2 0.395105 0.950797 0.46758 16.2036 212.187 46.8678 
2357 2 0.542474 0.531233 0.424501 2.53005 215.167 -2.52245 
2358 2 0.716214 0.498236 0.424394 -0.632771 216.805 -28.6633 
2356 2 0.728576 0.612402 0.418837 12.1819 212.259 21.6159 
2354 2 0.624418 0.66708 0.46362 -5.69558 212.029 42.7283 
2359 2 0.519746 0.446139 0.43665 0.385089 216.849 -33.7579 
2350 2 0.72008 0.955901 0.512664 -7.55866 211.88 47.86 
ITEM: TIMESTEP
7000
ITEM: NUMBER OF ATOMS
8
ITEM: BOX BOUNDS ff ff ff
0.0000000000000000e+00 5.4307000000000002e+01
0.0000000000000000e+00 5.4307000000000002e+01
0.0000000000000000e+00 5.4307000000000002e+01
ITEM: ATOMS id type xs ys zs vx vy vz 
2355 2 0.368399 0.612193 0.443077 0.283716 217.426 20.735 
2353 2 0.252662 0.76612 0.496352 1.39762 212.024 37.2147 
2360 2 0.754399 0.361933 0.436445 -0.414045 216.214 -34.0493 
2357 2 0.541481 0.609314 0.431479 -3.95832 212.481 27.7755 
2358 2 0.716021 0.578321 0.417032 -1.64502 218.306 -13.5002 
2356 2 0.732416 0.689471 0.434646 8.99276 209.125 53.1452 
2354 2 0.622318 0.745166 0.479436 -5.70509 212.027 43.1018 
2359 2 0.520162 0.526098 0.425148 2.44191 217.568 -28.527 
ITEM: TIMESTEP
7200
ITEM: NUMBER OF ATOMS
9
ITEM: BOX BOUNDS ff ff ff
0.0000000000000000e+00 5.4307000000000002e+01
0.0000000000000000e+00 5.4307000000000002e+01
0.0000000000000000e+00 5.4307000000000002e+01
ITEM: ATOMS id type xs ys zs vx vy vz 
2355 2 0.368561 0.692283 0.451095 0.554669 217.543 22.3828 
2353 2 0.253176 0.844203 0.510063 1.39776 212.024 37.2394 
2361 2 0.540179 0.240636 0.43659 0.0753379 216.849 -34.96 
2360 2 0.754191 0.44165 0.425983 2.07367 215.024 -18.7025 
2359 2 0.521819 0.605563 0.416516 15.7318 212.711 -9.77354 
2357 2 0.539711 0.68708 0.443678 -5.52165 211.095 37.6443 
2358 2 0.716275 0.657969 0.417699 0.345955 216.889 15.0233 
2354 2 0.620217 0.823252 0.495331 -5.70452 212.032 43.1922 
2356 2 0.735909 0.766269 0.45522 9.51957 208.412 57.7704 
ITEM: TIMESTEP
7400
ITEM: NUMBER OF ATOMS
10
ITEM: BOX BOUNDS ff ff ff
0.0000000000000000e+00 5.4307000000000002e+01
0.0000000000000000e+00 5.4307000000000002e+01
0.0000000000000000e+00 5.4307000000000002e+01
ITEM: ATOMS id type xs ys zs vx vy vz 
2355 2 0.368779 0.772363 0.459546 0.685656 217.424 23.587 
2353 2 0.253691 0.922287 0.523779 1.3978 212.025 37.2462 
2361 2 0.539651 0.320398 0.425853 -0.603787 215.499 -21.6619 
2360 2 0.756097 0.521697 0.422616 5.60117 217.229 -4.36436 
2359 2 0.527133 0.683826 0.417164 8.90894 210.881 15.1142 
2357 2 0.537704 0.764807 0.457887 -5.53848 210.991 39.4641 
2358 2 0.71665 0.735551 0.429241 2.76184 205.179 56.559 
2356 2 0.739408 0.843031 0.476644 9.50673 208.432 58.4021 
2362 2 0.735452 0.233572 0.436691 -0.0434443 216.43 -33.746 
2354 2 0.618116 0.901338 0.511241 -5.70466 212.032 43.2106 
ITEM: TIMESTEP
7600
ITEM: NUMBER OF ATOMS
11
ITEM: BOX BOUNDS ff ff ff
0.0000000000000000e+00 5.4307000000000002e+01
0.0000000000000000e+00 5.4307000000000002e+01
0.0000000000000000e+00 5.4307000000000002e+01
ITEM: ATOMS id type xs ys zs vx vy vz 
2355 2 0.369026 0.852438 0.468359 0.677556 217.422 24.2221 
2353 2 0.254206 1.00037 0.537496 1.39779 212.025 37.2467 
2363 2 0.631457 0.424851 0.436432 0.114694 216.243 -34.5767 
2361 2 0.539388 0.399397 0.42667 -0.232402 215.61 13.3066 
2360 2 0.759169 0.601764 0.42418 8.41096 217.85 8.82933 
2359 2 0.53221 0.760874 0.426883 8.48686 207.188 39.1466 
2357 2 0.535662 0.84252 0.472551 -5.54596 211.012 40.039 
2358 2 0.717319 0.811193 0.451312 1.60373 205.195 61.786 
2356 2 0.742911 0.919793 0.498173 9.51307 208.44 58.4827 
2362 2 0.734812 0.313443 0.42708 -0.612151 217.737 -20.5167 
2354 2 0.616015 0.979425 0.527156 -5.70457 212.033 43.2127 
ITEM: TIMESTEP
7800
ITEM: NUMBER OF ATOMS
10
ITEM: BOX BOUNDS ff ff ff
0.0000000000000000e+00 5.4307000000000002e+01
0.0000000000000000e+00 5.4307000000000002e+01
0.0000000000000000e+00 5.4307000000000002e+01
ITEM: ATOMS id type xs ys zs vx vy vz 
2355 2 0.369278 0.932514 0.477339 0.675565 217.451 24.4761 
2363 2 0.631288 0.50467 0.42587 0.412366 216.321 -22.7438 
2364 2 0.501987 0.432988 0.436415 -0.329352 216.541 -34.7834 
2361 2 0.539732 0.478498 0.434233 1.37756 215.312 26.2952 
2360 2 0.76226 0.681945 0.42886 8.63563 217.778 15.8878 
2359 2 0.535081 0.837403 0.443163 8.00378 207.575 47.0797 
2357 2 0.533618 0.920231 0.487335 -5.54527 211.021 40.2035 
2358 2 0.7179 0.88676 0.474345 1.57406 205.203 62.8788 
2362 2 0.734289 0.393586 0.421281 -2.84757 217.166 -9.13887 
2356 2 0.746414 0.996557 0.519712 9.51321 208.441 58.4859 
ITEM: TIMESTEP
8000
ITEM: NUMBER OF ATOMS
9
ITEM: BOX BOUNDS ff ff ff
0.0000000000000000e+00 5.4307000000000002e+01
0.0000000000000000e+00 5.4307000000000002e+01
0.0000000000000000e+00 5.4307000000000002e+01
ITEM: ATOMS id type xs ys zs vx vy vz 
2363 2 0.631226 0.584166 0.422925 -1.26793 216.194 3.33961 
2364 2 0.502499 0.512505 0.426091 5.33656 216.93 -16.2127 
2361 2 0.540327 0.55786 0.444187 1.64469 215.505 27.5107 
2360 2 0.765012 0.761934 0.435869 7.4889 216.462 23.3592 
2359 2 0.537921 0.913841 0.461144 7.71435 207.645 49.5791 
2365 2 0.5235 0.383459 0.436439 0.196453 216.854 -35.8939 
2358 2 0.718483 0.962335 0.497525 1.58622 205.216 62.9614 
2362 2 0.7344 0.473215 0.422598 1.02905 217.008 15.3598 
2357 2 0.531576 0.997947 0.502144 -5.54344 211.025 40.214 
ITEM: TIMESTEP
8200
ITEM: NUMBER OF ATOMS
8
ITEM: BOX BOUNDS ff ff ff
0.0000000000000000e+00 5.4307000000000002e+01
0.0000000000000000e+00 5.4307000000000002e+01
0.0000000000000000e+00 5.4307000000000002e+01
ITEM: ATOMS id type xs ys zs vx vy vz 
2366 2 0.30101 0.303059 0.436425 -0.395517 216.189 -34.7552 
2365 2 0.523626 0.463194 0.425297 -1.01972 217.521 -22.3374 
2364 2 0.504889 0.592585 0.421289 8.77239 216.41 -7.45576 