ITEM: TIMESTEP
0
ITEM: NUMBER OF ATOMS
0
ITEM: BOX BOUNDS ff ff ff
0.0000000000000000e+00 5.4307000000000002e+01
0.0000000000000000e+00 5.4307000000000002e+01
0.0000000000000000e+00 5.4307000000000002e+01
ITEM: ATOMS id type xs ys zs vx vy vz 
ITEM: TIMESTEP
50
ITEM: NUMBER OF ATOMS
1
ITEM: BOX BOUNDS ff ff ff
0.0000000000000000e+00 5.4307000000000002e+01
0.0000000000000000e+00 5.4307000000000002e+01
0.0000000000000000e+00 5.4307000000000002e+01
ITEM: ATOMS id type xs ys zs vx vy vz 
2326 2 0.257977 0.369979 0.44833 0.153742 219.346 -17.9054 
ITEM: TIMESTEP
100
ITEM: NUMBER OF ATOMS
1
ITEM: BOX BOUNDS ff ff ff
0.0000000000000000e+00 5.4307000000000002e+01
0.0000000000000000e+00 5.4307000000000002e+01
0.0000000000000000e+00 5.4307000000000002e+01
ITEM: ATOMS id type xs ys zs vx vy vz 
2326 2 0.257994 0.390185 0.446721 0.16697 219.549 -17.1208 
ITEM: TIMESTEP
150
ITEM: NUMBER OF ATOMS
1
ITEM: BOX BOUNDS ff ff ff
0.0000000000000000e+00 5.4307000000000002e+01
0.0000000000000000e+00 5.4307000000000002e+01
0.0000000000000000e+00 5.4307000000000002e+01
ITEM: ATOMS id type xs ys zs vx vy vz 
2326 2 0.258005 0.4104 0.445173 0.0688571 219.532 -16.4964 
ITEM: TIMESTEP
200
ITEM: NUMBER OF ATOMS
1
ITEM: BOX BOUNDS ff ff ff
0.0000000000000000e+00 5.4307000000000002e+01
0.0000000000000000e+00 5.4307000000000002e+01
0.0000000000000000e+00 5.4307000000000002e+01
ITEM: ATOMS id type xs ys zs vx vy vz 
2326 2 0.25801 0.430599 0.443698 0.0843431 219.191 -15.3824 
ITEM: TIMESTEP
250
ITEM: NUMBER OF ATOMS
2
ITEM: BOX BOUNDS ff ff ff
0.0000000000000000e+00 5.4307000000000002e+01
0.0000000000000000e+00 5.4307000000000002e+01
0.0000000000000000e+00 5.4307000000000002e+01
ITEM: ATOMS id type xs ys zs vx vy vz 
2326 2 0.258033 0.450757 0.442393 0.481717 218.784 -12.6699 
2327 2 0.659472 0.29526 0.448298 -0.0304042 219.272 -18.5834 
ITEM: TIMESTEP
300
ITEM: NUMBER OF ATOMS
2
ITEM: BOX BOUNDS ff ff ff
0.0000000000000000e+00 5.4307000000000002e+01
0.0000000000000000e+00 5.4307000000000002e+01
0.0000000000000000e+00 5.4307000000000002e+01
ITEM: ATOMS id type xs ys zs vx vy vz 
2326 2 0.2581 0.470919 0.441369 0.927288 219.305 -9.83859 
2327 2 0.659465 0.315447 0.446613 -0.12376 219.214 -17.9834 
ITEM: TIMESTEP
350
ITEM: NUMBER OF ATOMS
2
ITEM: BOX BOUNDS ff ff ff
0.0000000000000000e+00 5.4307000000000002e+01
0.0000000000000000e+00 5.4307000000000002e+01
0.0000000000000000e+00 5.4307000000000002e+01
ITEM: ATOMS id type xs ys zs vx vy vz 
2326 2 0.258189 0.491133 0.440529 0.950964 219.695 -8.56453 
2327 2 0.659454 0.335617 0.445004 -0.0427959 218.887 -16.7957 
ITEM: TIMESTEP
400
ITEM: NUMBER OF ATOMS
2
ITEM: BOX BOUNDS ff ff ff
0.0000000000000000e+00 5.4307000000000002e+01
0.0000000000000000e+00 5.4307000000000002e+01
0.0000000000000000e+00 5.4307000000000002e+01
ITEM: ATOMS id type xs ys zs vx vy vz 
2326 2 0.258268 0.51136 0.439782 0.7606 219.627 -7.637 
2327 2 0.659468 0.355757 0.443563 0.378544 218.74 -14.3664 
ITEM: TIMESTEP
450
ITEM: NUMBER OF ATOMS
3
ITEM: BOX BOUNDS ff ff ff
0.0000000000000000e+00 5.4307000000000002e+01
0.0000000000000000e+00 5.4307000000000002e+01
0.0000000000000000e+00 5.4307000000000002e+01
ITEM: ATOMS id type xs ys zs vx vy vz 
2326 2 0.258338 0.531556 0.439148 0.838012 218.95 -5.83558 
2328 2 0.360328 0.357582 0.448329 0.219894 219.131 -17.8153 
2327 2 0.659521 0.375918 0.442344 0.696051 219.229 -12.3491 
ITEM: TIMESTEP
500
ITEM: NUMBER OF ATOMS
3
ITEM: BOX BOUNDS ff ff ff
0.0000000000000000e+00 5.4307000000000002e+01
0.0000000000000000e+00 5.4307000000000002e+01
0.0000000000000000e+00 5.4307000000000002e+01
ITEM: ATOMS id type xs ys zs vx vy vz 
2326 2 0.258447 0.551671 0.438798 1.65619 218.24 -1.34424 
2328 2 0.360357 0.377769 0.446748 0.375509 219.395 -16.6364 
2327 2 0.659584 0.396115 0.441256 0.61982 219.441 -11.3507 
ITEM: TIMESTEP
550
ITEM: NUMBER OF ATOMS
3
ITEM: BOX BOUNDS ff ff ff
0.0000000000000000e+00 5.4307000000000002e+01
0.0000000000000000e+00 5.4307000000000002e+01
0.0000000000000000e+00 5.4307000000000002e+01
ITEM: ATOMS id type xs ys zs vx vy vz 
2326 2 0.258638 0.571796 0.438875 2.36644 219.03 2.47772 
2328 2 0.36039 0.397975 0.445251 0.303325 219.509 -15.9186 
2327 2 0.659631 0.416315 0.440253 0.427837 219.288 -10.3775 
ITEM: TIMESTEP
600
ITEM: NUMBER OF ATOMS
3
ITEM: BOX BOUNDS ff ff ff
0.0000000000000000e+00 5.4307000000000002e+01
0.0000000000000000e+00 5.4307000000000002e+01
0.0000000000000000e+00 5.4307000000000002e+01
ITEM: ATOMS id type xs ys zs vx vy vz 
2326 2 0.25886 0.591987 0.439176 2.37152 219.443 3.87102 
2328 2 0.360411 0.418182 0.443818 0.175197 219.395 -15.1398 
2327 2 0.659676 0.436474 0.439381 0.671002 218.521 -8.18227 
ITEM: TIMESTEP
650
ITEM: NUMBER OF ATOMS
4
ITEM: BOX BOUNDS ff ff ff
0.0000000000000000e+00 5.4307000000000002e+01
0.0000000000000000e+00 5.4307000000000002e+01
0.0000000000000000e+00 5.4307000000000002e+01
ITEM: ATOMS id type xs ys zs vx vy vz 
2326 2 0.259068 0.612189 0.439577 2.13889 219.343 4.86264 
2328 2 0.360432 0.438362 0.442489 0.364872 218.92 -13.4695 
2329 2 0.359734 0.170007 0.448329 0.175874 219.334 -17.9377 
2327 2 0.65978 0.456565 0.438832 1.66682 218.206 -3.55422 
ITEM: TIMESTEP
700
ITEM: NUMBER OF ATOMS
4
ITEM: BOX BOUNDS ff ff ff
0.0000000000000000e+00 5.4307000000000002e+01
0.0000000000000000e+00 5.4307000000000002e+01
0.0000000000000000e+00 5.4307000000000002e+01
ITEM: ATOMS id type xs ys zs vx vy vz 
2326 2 0.259264 0.63236 0.440094 2.22501 218.701 6.63923 
2328 2 0.360494 0.458506 0.44139 1.02095 218.851 -10.3275 
2329 2 0.359752 0.190211 0.446717 0.183324 219.523 -17.1478 
2327 2 0.659968 0.476695 0.438669 2.25116 219.049 -0.489714 
ITEM: TIMESTEP
750
ITEM: NUMBER OF ATOMS
4
ITEM: BOX BOUNDS ff ff ff
0.0000000000000000e+00 5.4307000000000002e+01
0.0000000000000000e+00 5.4307000000000002e+01
0.0000000000000000e+00 5.4307000000000002e+01
ITEM: ATOMS id type xs ys zs vx vy vz 
2326 2 0.259498 0.652462 0.440864 2.91177 218.183 10.2875 
2328 2 0.360609 0.478684 0.440552 1.38014 219.445 -8.17487 
2329 2 0.359763 0.210423 0.445167 0.0586427 219.508 -16.4942 
2327 2 0.660172 0.496879 0.438685 2.12282 219.298 0.733325 
ITEM: TIMESTEP
800
ITEM: NUMBER OF ATOMS
4
ITEM: BOX BOUNDS ff ff ff
0.0000000000000000e+00 5.4307000000000002e+01
0.0000000000000000e+00 5.4307000000000002e+01
0.0000000000000000e+00 5.4307000000000002e+01
ITEM: ATOMS id type xs ys zs vx vy vz 
2326 2 0.259793 0.672572 0.441954 3.4055 218.713 12.9924 
2328 2 0.360732 0.498899 0.439851 1.21726 219.605 -7.11317 
2329 2 0.359767 0.230622 0.443692 0.0752037 219.193 -15.3824 
2327 2 0.660355 0.517063 0.438802 1.87227 219.089 1.88235 
ITEM: TIMESTEP
850
ITEM: NUMBER OF ATOMS
5
ITEM: BOX BOUNDS ff ff ff
0.0000000000000000e+00 5.4307000000000002e+01
0.0000000000000000e+00 5.4307000000000002e+01
0.0000000000000000e+00 5.4307000000000002e+01
ITEM: ATOMS id type xs ys zs vx vy vz 
2326 2 0.260108 0.692724 0.443204 3.38402 218.96 14.0309 
2328 2 0.360832 0.519111 0.439244 0.997881 219.382 -5.96769 
2329 2 0.359792 0.250781 0.442383 0.53834 218.816 -12.785 
2330 2 0.758156 0.400507 0.448295 -0.0507795 219.231 -18.6492 
2327 2 0.660535 0.5372 0.439069 2.19526 218.244 4.31139 
ITEM: TIMESTEP
900
ITEM: NUMBER OF ATOMS
5
ITEM: BOX BOUNDS ff ff ff
0.0000000000000000e+00 5.4307000000000002e+01
0.0000000000000000e+00 5.4307000000000002e+01
0.0000000000000000e+00 5.4307000000000002e+01
ITEM: ATOMS id type xs ys zs vx vy vz 
2326 2 0.260412 0.712882 0.444531 3.22027 218.896 14.7846 
2328 2 0.360935 0.539274 0.438795 1.41111 218.543 -3.36245 
2329 2 0.359868 0.270945 0.441342 1.04883 219.306 -10.0836 
2330 2 0.758148 0.420687 0.446604 -0.113915 219.112 -18.0075 
2327 2 0.660783 0.557269 0.439663 3.21336 218.002 8.61284 
ITEM: TIMESTEP
950
ITEM: NUMBER OF ATOMS
5
ITEM: BOX BOUNDS ff ff ff
0.0000000000000000e+00 5.4307000000000002e+01
0.0000000000000000e+00 5.4307000000000002e+01
0.0000000000000000e+00 5.4307000000000002e+01
ITEM: ATOMS id type xs ys zs vx vy vz 
2326 2 0.260708 0.733024 0.445937 3.25855 218.596 15.8753 
2328 2 0.361116 0.559378 0.438694 2.53676 218.481 1.14826 
2329 2 0.359968 0.291157 0.440479 1.05672 219.663 -8.81482 
2330 2 0.758142 0.440845 0.445004 0.0271358 218.741 -16.5397 
2327 2 0.661108 0.577372 0.440589 3.69199 218.649 11.0701 
ITEM: TIMESTEP
1000
ITEM: NUMBER OF ATOMS
5
ITEM: BOX BOUNDS ff ff ff
0.0000000000000000e+00 5.4307000000000002e+01
0.0000000000000000e+00 5.4307000000000002e+01
0.0000000000000000e+00 5.4307000000000002e+01
ITEM: ATOMS id type xs ys zs vx vy vz 
2326 2 0.26102 0.753138 0.447474 3.54902 218.418 17.554 
2328 2 0.361379 0.579531 0.438933 3.00538 219.207 3.62202 
2329 2 0.360054 0.311381 0.439711 0.811085 219.606 -7.84329 
2330 2 0.758162 0.46098 0.443596 0.41319 218.799 -14.0201 
2327 2 0.661444 0.597513 0.441658 3.55853 218.802 12.0847 
ITEM: TIMESTEP
1050
ITEM: NUMBER OF ATOMS
6
ITEM: BOX BOUNDS ff ff ff
0.0000000000000000e+00 5.4307000000000002e+01
0.0000000000000000e+00 5.4307000000000002e+01
0.0000000000000000e+00 5.4307000000000002e+01
ITEM: ATOMS id type xs ys zs vx vy vz 
2329 2 0.360128 0.331579 0.439056 0.890998 219.037 -6.11193 
2328 2 0.361648 0.599722 0.439321 2.78653 219.331 4.74187 
2326 2 0.261358 0.773255 0.449153 3.73965 218.609 18.7673 
2331 2 0.746392 0.220212 0.448292 0.0138666 219.064 -18.6456 
2330 2 0.758211 0.481148 0.442391 0.59708 219.285 -12.3677 
2327 2 0.661761 0.617654 0.442812 3.35821 218.67 13.0044 
ITEM: TIMESTEP
1100
ITEM: NUMBER OF ATOMS
6
ITEM: BOX BOUNDS ff ff ff
0.0000000000000000e+00 5.4307000000000002e+01
0.0000000000000000e+00 5.4307000000000002e+01
0.0000000000000000e+00 5.4307000000000002e+01
ITEM: ATOMS id type xs ys zs vx vy vz 
2329 2 0.360245 0.351712 0.43866 1.7748 218.495 -2.15687 
2328 2 0.361891 0.619908 0.439809 2.54538 219.105 5.9173 
2326 2 0.261702 0.793388 0.45091 3.71658 218.703 19.3485 
2331 2 0.746391 0.240367 0.446624 -0.0535153 218.735 -17.388 
2330 2 0.758262 0.501346 0.441294 0.479298 219.402 -11.4952 
2327 2 0.662074 0.637769 0.444071 3.51605 218.26 14.5004 
ITEM: TIMESTEP
1150
ITEM: NUMBER OF ATOMS
6
ITEM: BOX BOUNDS ff ff ff
0.0000000000000000e+00 5.4307000000000002e+01
0.0000000000000000e+00 5.4307000000000002e+01
0.0000000000000000e+00 5.4307000000000002e+01
ITEM: ATOMS id type xs ys zs vx vy vz 
2329 2 0.360449 0.371858 0.438635 2.52408 219.205 1.15547 
2328 2 0.362137 0.640052 0.440445 2.91662 218.424 8.21605 
2326 2 0.262041 0.813523 0.452712 3.64052 218.68 19.7882 
2331 2 0.74638 0.260501 0.445124 -0.200528 218.763 -15.1496 
2330 2 0.758299 0.521538 0.44028 0.359806 219.125 -10.4248 
2327 2 0.662418 0.657855 0.445504 3.96057 218.17 16.5926 
ITEM: TIMESTEP
1200
ITEM: NUMBER OF ATOMS
6
ITEM: BOX BOUNDS ff ff ff
0.0000000000000000e+00 5.4307000000000002e+01
0.0000000000000000e+00 5.4307000000000002e+01
0.0000000000000000e+00 5.4307000000000002e+01
ITEM: ATOMS id type xs ys zs vx vy vz 
2329 2 0.360686 0.392061 0.438809 2.51359 219.553 2.45617 
2328 2 0.362444 0.660151 0.441358 3.74877 218.401 11.52 
2326 2 0.262375 0.833653 0.454556 3.65133 218.588 20.3053 
2331 2 0.746358 0.280663 0.443809 -0.25693 219.212 -13.6075 
2330 2 0.758344 0.541674 0.439428 0.739548 218.249 -7.59187 
2327 2 0.662794 0.677954 0.447097 4.15523 218.425 17.8528 
ITEM: TIMESTEP
1250
ITEM: NUMBER OF ATOMS
7
ITEM: BOX BOUNDS ff ff ff
0.0000000000000000e+00 5.4307000000000002e+01
0.0000000000000000e+00 5.4307000000000002e+01
0.0000000000000000e+00 5.4307000000000002e+01
ITEM: ATOMS id type xs ys zs vx vy vz 
2329 2 0.360904 0.412274 0.439079 2.23433 219.484 3.44707 
2328 2 0.362808 0.680282 0.442512 4.04168 218.842 13.2646 
2326 2 0.262716 0.853776 0.456455 3.74173 218.548 20.9291 
2332 2 0.753874 0.38602 0.448308 0.0234244 219.379 -18.4069 
2331 2 0.746336 0.300855 0.442594 -0.206877 219.355 -12.8346 
2330 2 0.758453 0.56176 0.43895 1.61934 218.375 -2.88809 
2327 2 0.663174 0.698068 0.448772 4.0745 218.491 18.4893 
ITEM: TIMESTEP
1300
ITEM: NUMBER OF ATOMS
7
ITEM: BOX BOUNDS ff ff ff
0.0000000000000000e+00 5.4307000000000002e+01
0.0000000000000000e+00 5.4307000000000002e+01
0.0000000000000000e+00 5.4307000000000002e+01
ITEM: ATOMS id type xs ys zs vx vy vz 
2329 2 0.361108 0.432465 0.43946 2.2955 219.052 4.99801 
2328 2 0.363174 0.700436 0.443775 3.8696 218.91 14.137 
2326 2 0.263063 0.8739 0.458405 3.79852 218.608 21.383 
2332 2 0.753875 0.406222 0.446638 -0.0119562 219.424 -17.889 
2331 2 0.746319 0.321044 0.44145 -0.187868 219.099 -11.921 
2330 2 0.758622 0.581906 0.438813 1.94337 219.161 -0.509502 
2327 2 0.663544 0.718183 0.4505 3.97676 218.442 19.0414 
ITEM: TIMESTEP
1350
ITEM: NUMBER OF ATOMS
7
ITEM: BOX BOUNDS ff ff ff
0.0000000000000000e+00 5.4307000000000002e+01
0.0000000000000000e+00 5.4307000000000002e+01
0.0000000000000000e+00 5.4307000000000002e+01
ITEM: ATOMS id type xs ys zs vx vy vz 
2329 2 0.361346 0.452613 0.440042 2.93003 218.76 7.7832 
2328 2 0.363521 0.720586 0.445115 3.71456 218.788 14.9892 
2326 2 0.263413 0.894029 0.460386 3.78694 218.654 21.6284 
2332 2 0.753872 0.426418 0.445021 -0.0356355 219.249 -17.1461 
2331 2 0.746295 0.341181 0.44045 -0.376056 218.292 -9.34086 
2330 2 0.758795 0.602093 0.438817 1.76725 219.283 0.541194 
2327 2 0.663912 0.738289 0.452283 4.03073 218.318 19.734 
ITEM: TIMESTEP
1400
ITEM: NUMBER OF ATOMS
7
ITEM: BOX BOUNDS ff ff ff
0.0000000000000000e+00 5.4307000000000002e+01
0.0000000000000000e+00 5.4307000000000002e+01
0.0000000000000000e+00 5.4307000000000002e+01
ITEM: ATOMS id type xs ys zs vx vy vz 
2329 2 0.361641 0.472772 0.440868 3.37913 219.171 9.86366 
2328 2 0.363869 0.740717 0.446549 3.88885 218.507 16.2682 
2326 2 0.26376 0.914162 0.462384 3.75325 218.687 21.7721 
2332 2 0.753872 0.446588 0.443512 0.0668114 218.935 -15.3997 
2331 2 0.746243 0.361271 0.439795 -0.729367 218.41 -4.96099 
2330 2 0.758949 0.62227 0.438919 1.62152 218.914 1.8038 
2327 2 0.664289 0.758387 0.454137 4.1705 218.301 20.5134 
ITEM: TIMESTEP
1450
ITEM: NUMBER OF ATOMS
8
ITEM: BOX BOUNDS ff ff ff
0.0000000000000000e+00 5.4307000000000002e+01
0.0000000000000000e+00 5.4307000000000002e+01
0.0000000000000000e+00 5.4307000000000002e+01
ITEM: ATOMS id type xs ys zs vx vy vz 
2333 2 0.345585 0.173118 0.448327 -0.0591919 219.379 -18.0039 
2329 2 0.361952 0.492961 0.441823 3.31672 219.337 10.804 
2328 2 0.364243 0.760832 0.448118 4.22128 218.516 17.7603 
2326 2 0.264104 0.934298 0.464392 3.73332 218.716 21.842 
2332 2 0.753887 0.466752 0.442204 0.249423 219.209 -13.1241 
2331 2 0.746169 0.381418 0.439461 -0.828842 219.176 -2.68722 
2330 2 0.759113 0.642382 0.439208 2.09226 217.936 4.94978 
2327 2 0.664677 0.77849 0.456051 4.22669 218.371 21.0248 
ITEM: TIMESTEP
1500
ITEM: NUMBER OF ATOMS
8
ITEM: BOX BOUNDS ff ff ff
0.0000000000000000e+00 5.4307000000000002e+01
0.0000000000000000e+00 5.4307000000000002e+01
0.0000000000000000e+00 5.4307000000000002e+01
ITEM: ATOMS id type xs ys zs vx vy vz 
2333 2 0.34558 0.193326 0.446704 -0.0338613 219.558 -17.3174 
2329 2 0.362246 0.513154 0.442853 3.09942 219.288 11.5761 
2328 2 0.364638 0.780959 0.449798 4.32402 218.674 18.6208 
2326 2 0.264448 0.954435 0.466405 3.72701 218.732 21.8658 
2332 2 0.753914 0.486955 0.441059 0.303017 219.595 -11.9052 
2331 2 0.746096 0.40161 0.43926 -0.748138 219.355 -1.75966 
2330 2 0.759348 0.66244 0.439877 2.9645 218.077 9.35668 
2327 2 0.665065 0.798596 0.458002 4.19168 218.389 21.3407 
ITEM: TIMESTEP
1550
ITEM: NUMBER OF ATOMS
8
ITEM: BOX BOUNDS ff ff ff
0.0000000000000000e+00 5.4307000000000002e+01
0.0000000000000000e+00 5.4307000000000002e+01
0.0000000000000000e+00 5.4307000000000002e+01
ITEM: ATOMS id type xs ys zs vx vy vz 
2333 2 0.34558 0.21354 0.445135 0.0216407 219.527 -16.7432 
2329 2 0.36253 0.533335 0.443961 3.11683 219.092 12.5817 
2328 2 0.365033 0.801094 0.451537 4.23442 218.698 19.1361 
2326 2 0.264791 0.974574 0.468418 3.72565 218.738 21.8719 
2332 2 0.753939 0.507177 0.439998 0.235653 219.631 -11.1573 
2331 2 0.74603 0.421798 0.439139 -0.709555 219.113 -0.772031 
2330 2 0.759638 0.682551 0.440847 3.21761 218.686 11.3348 
2327 2 0.665449 0.818702 0.459979 4.15488 218.375 21.6106 
ITEM: TIMESTEP
1600
ITEM: NUMBER OF ATOMS
8
ITEM: BOX BOUNDS ff ff ff
0.0000000000000000e+00 5.4307000000000002e+01
0.0000000000000000e+00 5.4307000000000002e+01
0.0000000000000000e+00 5.4307000000000002e+01
ITEM: ATOMS id type xs ys zs vx vy vz 
2333 2 0.345582 0.23374 0.443637 -0.00256649 219.198 -15.6153 
2329 2 0.362829 0.5535 0.445183 3.39896 219.003 13.9647 
2328 2 0.365419 0.821227 0.45332 4.16314 218.658 19.6085 
2326 2 0.265134 0.994713 0.470432 3.72543 218.74 21.8733 
2332 2 0.753958 0.527387 0.439016 0.203761 219.311 -10.0248 
2331 2 0.74596 0.441943 0.439158 -0.84238 218.481 1.50693 
2330 2 0.759928 0.702691 0.441933 3.05232 218.761 12.2306 
2327 2 0.665831 0.838807 0.461982 4.16864 218.346 21.8924 
ITEM: TIMESTEP
1650
ITEM: NUMBER OF ATOMS
8
ITEM: BOX BOUNDS ff ff ff
0.0000000000000000e+00 5.4307000000000002e+01
0.0000000000000000e+00 5.4307000000000002e+01
0.0000000000000000e+00 5.4307000000000002e+01
ITEM: ATOMS id type xs ys zs vx vy vz 
2333 2 0.345575 0.253906 0.442305 -0.155334 218.989 -13.1156 
2329 2 0.363152 0.573671 0.44652 3.57345 219.157 14.9708 
2328 2 0.365804 0.841356 0.45515 4.21751 218.584 20.1613 
2334 2 0.562734 0.26942 0.448325 0.214492 219.313 -18.0053 
2332 2 0.753985 0.547552 0.438205 0.420347 218.785 -7.23853 
2331 2 0.745873 0.462055 0.439448 -1.03902 218.59 4.6448 
2330 2 0.760202 0.722824 0.443101 2.93905 218.53 13.2101 
2327 2 0.666217 0.858909 0.464011 4.20584 218.345 22.1666 
ITEM: TIMESTEP
1700
ITEM: NUMBER OF ATOMS
8
ITEM: BOX BOUNDS ff ff ff
0.0000000000000000e+00 5.4307000000000002e+01
0.0000000000000000e+00 5.4307000000000002e+01
0.0000000000000000e+00 5.4307000000000002e+01
ITEM: ATOMS id type xs ys zs vx vy vz 
2333 2 0.345555 0.274089 0.441211 -0.253973 219.503 -10.901 
2329 2 0.36348 0.593851 0.447926 3.51108 219.205 15.5446 
2328 2 0.366197 0.86148 0.457033 4.31644 218.594 20.7123 
2334 2 0.562757 0.289622 0.446706 0.229003 219.483 -17.2192 
2332 2 0.754039 0.567709 0.437698 0.73582 219.236 -4.03083 
2331 2 0.745775 0.482203 0.43996 -1.05736 219.034 6.22366 
2330 2 0.760481 0.742922 0.444393 3.1952 218.072 15.0374 
2327 2 0.666605 0.879013 0.466061 4.21868 218.365 22.3594 
ITEM: TIMESTEP
1750
ITEM: NUMBER OF ATOMS
8
ITEM: BOX BOUNDS ff ff ff
0.0000000000000000e+00 5.4307000000000002e+01
0.0000000000000000e+00 5.4307000000000002e+01
0.0000000000000000e+00 5.4307000000000002e+01
ITEM: ATOMS id type xs ys zs vx vy vz 
2333 2 0.345534 0.294316 0.440259 -0.186878 219.791 -9.89003 
2329 2 0.363797 0.614032 0.44938 3.38609 219.175 16.0515 
2328 2 0.366596 0.881608 0.458958 4.3422 218.644 21.0666 
2334 2 0.562771 0.30983 0.445151 0.0776996 219.474 -16.5419 
2332 2 0.754112 0.587919 0.437403 0.799041 219.687 -2.60428 
2331 2 0.745682 0.502375 0.44057 -0.961618 219.117 6.97812 
2330 2 0.760795 0.762999 0.445881 3.59505 218.147 17.1453 
2327 2 0.666993 0.899118 0.468126 4.20392 218.381 22.4837 
ITEM: TIMESTEP
1800
ITEM: NUMBER OF ATOMS
8
ITEM: BOX BOUNDS ff ff ff
0.0000000000000000e+00 5.4307000000000002e+01
0.0000000000000000e+00 5.4307000000000002e+01
0.0000000000000000e+00 5.4307000000000002e+01
ITEM: ATOMS id type xs ys zs vx vy vz 
2333 2 0.345522 0.31455 0.439385 -0.0895991 219.684 -9.05626 
2329 2 0.364107 0.634208 0.450884 3.38637 219.093 16.6324 
2328 2 0.366994 0.90174 0.460908 4.30347 218.676 21.2868 
2334 2 0.562776 0.330028 0.443671 0.0791568 219.222 -15.4959 
2332 2 0.754181 0.608147 0.437203 0.688248 219.67 -1.73128 
2331 2 0.745596 0.522544 0.441246 -0.905 218.968 7.76193 
2330 2 0.761133 0.783096 0.447514 3.70023 218.397 18.1902 
2327 2 0.667379 0.919225 0.4702 4.18558 218.399 22.5607 
ITEM: TIMESTEP
1850
ITEM: NUMBER OF ATOMS
9
ITEM: BOX BOUNDS ff ff ff
0.0000000000000000e+00 5.4307000000000002e+01
0.0000000000000000e+00 5.4307000000000002e+01
0.0000000000000000e+00 5.4307000000000002e+01
ITEM: ATOMS id type xs ys zs vx vy vz 
2335 2 0.275707 0.279193 0.448301 0.0836811 219.185 -18.4815 
2333 2 0.345513 0.334749 0.438623 -0.141564 218.996 -7.13703 
2329 2 0.364424 0.654377 0.452447 3.49981 219.061 17.3152 
2328 2 0.367388 0.921875 0.462875 4.2631 218.712 21.4197 
2334 2 0.562802 0.350193 0.442338 0.572934 218.888 -13.2182 
2332 2 0.754241 0.628355 0.4371 0.648124 219.186 -0.307459 
2331 2 0.745512 0.54269 0.442018 -0.952535 218.679 9.13744 
2330 2 0.76147 0.803207 0.449216 3.61014 218.429 18.75 
2327 2 0.667764 0.939334 0.472279 4.17644 218.415 22.596 
ITEM: TIMESTEP
1900
ITEM: NUMBER OF ATOMS
9
ITEM: BOX BOUNDS ff ff ff
0.0000000000000000e+00 5.4307000000000002e+01
0.0000000000000000e+00 5.4307000000000002e+01
0.0000000000000000e+00 5.4307000000000002e+01
ITEM: ATOMS id type xs ys zs vx vy vz 
2335 2 0.275708 0.299371 0.446638 -0.122656 219.138 -17.6112 
2333 2 0.345489 0.354884 0.438152 -0.389032 218.655 -2.86054 
2329 2 0.36475 0.674549 0.454067 3.56518 219.115 17.8293 
2328 2 0.36778 0.942013 0.46485 4.24573 218.74 21.4755 
2334 2 0.562884 0.37036 0.441243 1.14815 219.291 -10.7598 
2332 2 0.754311 0.648498 0.437214 0.940443 218.506 3.16482 
2331 2 0.745421 0.562824 0.442935 -1.01648 218.742 10.7106 
2330 2 0.761799 0.823314 0.450967 3.55443 218.34 19.3073 
2327 2 0.668148 0.959444 0.47436 4.17373 218.423 22.6075 
ITEM: TIMESTEP
1950
ITEM: NUMBER OF ATOMS
9
ITEM: BOX BOUNDS ff ff ff
0.0000000000000000e+00 5.4307000000000002e+01
0.0000000000000000e+00 5.4307000000000002e+01
0.0000000000000000e+00 5.4307000000000002e+01
ITEM: ATOMS id type xs ys zs vx vy vz 
2335 2 0.275683 0.319548 0.445063 -0.373275 219.176 -16.593 
2333 2 0.345446 0.375052 0.43805 -0.507608 219.457 0.162983 
2329 2 0.365077 0.694724 0.455724 3.53055 219.132 18.1664 
2328 2 0.368171 0.962153 0.466828 4.24124 218.753 21.4918 
2334 2 0.562995 0.390568 0.440316 1.16784 219.605 -9.49937 
2332 2 0.754416 0.668633 0.437682 1.28857 219.017 6.61144 
2331 2 0.745327 0.582972 0.443966 -0.997503 218.916 11.5774 
2330 2 0.762129 0.84341 0.452778 3.63987 218.209 20.0774 
2327 2 0.668533 0.979554 0.476441 4.17316 218.425 22.6104 
ITEM: TIMESTEP
2000
ITEM: NUMBER OF ATOMS
9
ITEM: BOX BOUNDS ff ff ff
0.0000000000000000e+00 5.4307000000000002e+01
0.0000000000000000e+00 5.4307000000000002e+01
0.0000000000000000e+00 5.4307000000000002e+01
ITEM: ATOMS id type xs ys zs vx vy vz 
2335 2 0.275652 0.339726 0.443583 -0.218276 219.129 -15.5119 
2333 2 0.345402 0.395276 0.438123 -0.413604 219.77 1.28711 
2329 2 0.365399 0.714898 0.457411 3.47565 219.118 18.4625 
2328 2 0.368561 0.982294 0.468807 4.24039 218.757 21.4956 
2334 2 0.563089 0.410786 0.439488 0.876654 219.554 -8.47774 
2332 2 0.754538 0.688821 0.438362 1.33712 219.424 7.96177 
2331 2 0.745238 0.603129 0.445057 -0.927679 218.935 12.0908 
2330 2 0.76247 0.8635 0.454664 3.76009 218.24 20.8374 
2327 2 0.668917 0.999664 0.478523 4.17306 218.426 22.611 
ITEM: TIMESTEP
2050
ITEM: NUMBER OF ATOMS
8
ITEM: BOX BOUNDS ff ff ff
0.0000000000000000e+00 5.4307000000000002e+01
0.0000000000000000e+00 5.4307000000000002e+01
0.0000000000000000e+00 5.4307000000000002e+01
ITEM: ATOMS id type xs ys zs vx vy vz 
2335 2 0.275656 0.3599 0.442217 0.317615 219.137 -14.1373 
2333 2 0.34537 0.415506 0.438282 -0.312615 219.591 2.214 
2329 2 0.365719 0.735071 0.459124 3.47753 219.086 18.7732 
2336 2 0.765449 0.220314 0.448296 -0.107258 219.125 -18.5812 
2334 2 0.563167 0.430982 0.438773 0.938118 219.04 -6.80924 
2331 2 0.745155 0.623283 0.446193 -0.891178 218.849 12.6251 
2332 2 0.754657 0.709024 0.439133 1.23223 219.376 8.78116 
2330 2 0.762818 0.883597 0.456604 3.78566 218.323 21.2683 
ITEM: TIMESTEP
2100
ITEM: NUMBER OF ATOMS
8
ITEM: BOX BOUNDS ff ff ff
0.0000000000000000e+00 5.4307000000000002e+01
0.0000000000000000e+00 5.4307000000000002e+01
0.0000000000000000e+00 5.4307000000000002e+01
ITEM: ATOMS id type xs ys zs vx vy vz 
2335 2 0.275699 0.38008 0.440975 0.516545 219.192 -12.855 
2333 2 0.345339 0.43569 0.438568 -0.399429 218.769 4.39148 
2329 2 0.366041 0.755241 0.460868 3.52203 219.076 19.0989 
2336 2 0.765442 0.240482 0.446626 0.0147865 218.963 -17.5913 
2334 2 0.563293 0.451113 0.438305 1.94424 218.435 -3.01642 
2331 2 0.745072 0.643426 0.44739 -0.915817 218.718 13.4071 
2332 2 0.754768 0.729204 0.439994 1.21844 218.91 10.0978 
2330 2 0.763165 0.9037 0.458574 3.74383 218.368 21.5052 
ITEM: TIMESTEP
2150
ITEM: NUMBER OF ATOMS
8
ITEM: BOX BOUNDS ff ff ff
0.0000000000000000e+00 5.4307000000000002e+01
0.0000000000000000e+00 5.4307000000000002e+01
0.0000000000000000e+00 5.4307000000000002e+01
ITEM: ATOMS id type xs ys zs vx vy vz 
2335 2 0.275728 0.400254 0.439861 0.00724291 219.063 -11.2639 
2333 2 0.34529 0.455805 0.439163 -0.674984 218.46 8.62272 
2329 2 0.366367 0.775412 0.462639 3.54519 219.094 19.3492 
2336 2 0.765461 0.26064 0.445076 0.397903 218.995 -16.0448 
2334 2 0.563522 0.47125 0.438205 2.87898 219.084 0.425885 
2331 2 0.744986 0.663563 0.448663 -0.945682 218.743 14.2208 
2332 2 0.75489 0.74933 0.441042 1.47406 218.386 12.8982 
2330 2 0.763508 0.923807 0.460561 3.70412 218.41 21.6373 
ITEM: TIMESTEP
2200
ITEM: NUMBER OF ATOMS
8
ITEM: BOX BOUNDS ff ff ff
0.0000000000000000e+00 5.4307000000000002e+01
0.0000000000000000e+00 5.4307000000000002e+01
0.0000000000000000e+00 5.4307000000000002e+01
ITEM: ATOMS id type xs ys zs vx vy vz 
2335 2 0.2757 0.420426 0.438906 -0.518688 219.147 -9.51668 
2333 2 0.34522 0.47595 0.440095 -0.78785 219.133 11.1885 
2329 2 0.366693 0.795584 0.464429 3.52978 219.1 19.5288 
2336 2 0.765509 0.280815 0.443659 0.579605 219.256 -14.8368 
2334 2 0.563793 0.491442 0.438318 2.87952 219.434 1.87396 
2331 2 0.7449 0.683706 0.449998 -0.930426 218.811 14.7207 
2332 2 0.755039 0.769448 0.442357 1.72735 218.733 15.3706 
2330 2 0.763848 0.943918 0.462556 3.68811 218.44 21.6902 
ITEM: TIMESTEP
2250
ITEM: NUMBER OF ATOMS
9
ITEM: BOX BOUNDS ff ff ff
0.0000000000000000e+00 5.4307000000000002e+01
0.0000000000000000e+00 5.4307000000000002e+01
0.0000000000000000e+00 5.4307000000000002e+01
ITEM: ATOMS id type xs ys zs vx vy vz 
2335 2 0.275661 0.440599 0.438107 -0.153672 219.009 -7.77679 
2333 2 0.34515 0.49614 0.441173 -0.721242 219.362 12.1115 
2329 2 0.367017 0.815756 0.466234 3.50873 219.095 19.6848 
2337 2 0.532356 0.149044 0.448311 -0.228384 219.04 -18.1851 
2336 2 0.765555 0.301006 0.442333 0.373194 219.319 -13.9575 
2334 2 0.564041 0.511643 0.438543 2.52652 219.35 3.0195 
2331 2 0.744816 0.703852 0.451369 -0.888347 218.811 15.0603 
2332 2 0.755201 0.789602 0.443824 1.75725 219 16.3561 
2330 2 0.764187 0.96403 0.464554 3.68416 218.452 21.7053 
ITEM: TIMESTEP
2300
ITEM: NUMBER OF ATOMS
9
ITEM: BOX BOUNDS ff ff ff
0.0000000000000000e+00 5.4307000000000002e+01
0.0000000000000000e+00 5.4307000000000002e+01
0.0000000000000000e+00 5.4307000000000002e+01
ITEM: ATOMS id type xs ys zs vx vy vz 
2335 2 0.275694 0.46076 0.43749 0.871535 219.027 -5.61666 
2333 2 0.345087 0.516332 0.442321 -0.660553 219.216 12.8644 
2329 2 0.36734 0.835928 0.468053 3.51 219.085 19.8365 
2337 2 0.532321 0.169215 0.446694 -0.514455 219.151 -16.9701 
2336 2 0.765577 0.321197 0.441092 0.145645 219.239 -12.963 
2334 2 0.564272 0.531819 0.438891 2.62687 218.825 4.76893 
2331 2 0.744735 0.723996 0.452772 -0.868067 218.755 15.4176 
2332 2 0.75536 0.809766 0.445358 1.69229 218.973 16.9524 
2330 2 0.764527 0.984143 0.466553 3.68345 218.456 21.7088 
ITEM: TIMESTEP
2350
ITEM: NUMBER OF ATOMS
9
ITEM: BOX BOUNDS ff ff ff
0.0000000000000000e+00 5.4307000000000002e+01
0.0000000000000000e+00 5.4307000000000002e+01
0.0000000000000000e+00 5.4307000000000002e+01
ITEM: ATOMS id type xs ys zs vx vy vz 
2335 2 0.275797 0.480933 0.437057 1.15999 219.106 -3.84962 
2333 2 0.345024 0.536494 0.443565 -0.732037 218.728 14.3543 
2329 2 0.367663 0.856099 0.469887 3.5258 219.083 19.9816 
2337 2 0.532273 0.189398 0.445177 -0.467518 219.261 -16.0233 
2336 2 0.765598 0.341367 0.439969 0.442391 218.89 -11.2278 
2334 2 0.564553 0.551937 0.439475 3.56962 218.363 8.09718 
2331 2 0.744655 0.744133 0.454212 -0.884101 218.683 15.9018 
2332 2 0.755515 0.829917 0.446953 1.68661 218.733 17.7828 
2330 2 0.764866 1.00426 0.468551 3.68334 218.457 21.7094 
ITEM: TIMESTEP
2400
ITEM: NUMBER OF ATOMS
8
ITEM: BOX BOUNDS ff ff ff
0.0000000000000000e+00 5.4307000000000002e+01
0.0000000000000000e+00 5.4307000000000002e+01
0.0000000000000000e+00 5.4307000000000002e+01
ITEM: ATOMS id type xs ys zs vx vy vz 
2335 2 0.275872 0.501095 0.436796 0.342823 218.898 -1.70738 
2333 2 0.344949 0.55662 0.444993 -0.896029 218.604 16.6581 
2329 2 0.367989 0.87627 0.471732 3.53318 219.091 20.0933 
2337 2 0.532243 0.209586 0.443744 -0.158368 219.273 -15.0907 
2336 2 0.765676 0.361517 0.439058 1.24247 218.97 -8.55287 
2334 2 0.564921 0.572061 0.440355 4.26168 218.83 10.6727 
2331 2 0.744573 0.764267 0.4557 -0.903448 218.696 16.3859 
2332 2 0.755674 0.850044 0.448651 1.79587 218.534 19.151 
ITEM: TIMESTEP
2450
ITEM: NUMBER OF ATOMS
9
ITEM: BOX BOUNDS ff ff ff
0.0000000000000000e+00 5.4307000000000002e+01
0.0000000000000000e+00 5.4307000000000002e+01
0.0000000000000000e+00 5.4307000000000002e+01
ITEM: ATOMS id type xs ys zs vx vy vz 
2335 2 0.275864 0.521254 0.436742 -0.358948 219.021 0.442281 
2333 2 0.344863 0.576762 0.446599 -0.959148 218.922 18.028 
2329 2 0.368314 0.896442 0.473586 3.52647 219.099 20.1714 
2337 2 0.532235 0.22977 0.442403 -0.113659 219.121 -13.964 
2338 2 0.544892 0.14266 0.448311 -0.0811364 218.929 -18.1438 
2336 2 0.76581 0.381699 0.438361 1.52635 219.385 -6.78041 
2334 2 0.565314 0.592221 0.441396 4.18987 219.013 11.838 
2331 2 0.744489 0.784404 0.457224 -0.89793 218.734 16.6972 
2332 2 0.755845 0.870169 0.450471 1.89182 218.681 20.267 
ITEM: TIMESTEP
2500
ITEM: NUMBER OF ATOMS
9
ITEM: BOX BOUNDS ff ff ff
0.0000000000000000e+00 5.4307000000000002e+01
0.0000000000000000e+00 5.4307000000000002e+01
0.0000000000000000e+00 5.4307000000000002e+01
ITEM: ATOMS id type xs ys zs vx vy vz 
2335 2 0.275843 0.541413 0.436871 0.104672 218.845 2.42584 
2333 2 0.344776 0.596925 0.448288 -0.928178 219.037 18.5946 
2329 2 0.368638 0.916614 0.475445 3.51622 219.11 20.2229 
2337 2 0.532201 0.249929 0.441203 -0.737412 218.838 -11.8969 